# vtk DataFile Version 3.0
LinearLoad
ASCII
DATASET UNSTRUCTURED_GRID
POINTS      207 float
  0.100000000000000        1.10000000000000       0.100000000000000     
  5.000000000000000E-002   1.10000000000000       0.100000000000000     
  0.100000000000000        1.10000000000000       5.000000000000000E-002
  0.100000000000000        1.05000000000000       0.100000000000000     
  5.000000000000000E-002   1.10000000000000       5.000000000000000E-002
  0.100000000000000        1.05000000000000       5.000000000000000E-002
  5.000000000000000E-002   1.05000000000000       0.100000000000000     
  5.000000000000000E-002   1.05000000000000       5.000000000000000E-002
  0.000000000000000E+000   1.10000000000000       0.100000000000000     
  0.100000000000000        1.10000000000000       0.000000000000000E+000
  0.100000000000000        1.00000000000000       0.100000000000000     
  5.000000000000000E-002   1.10000000000000       0.000000000000000E+000
  0.000000000000000E+000   1.10000000000000       5.000000000000000E-002
  0.000000000000000E+000   1.05000000000000       0.100000000000000     
  0.100000000000000        1.05000000000000       0.000000000000000E+000
  0.100000000000000        1.00000000000000       5.000000000000000E-002
  5.000000000000000E-002   1.00000000000000       0.100000000000000     
  5.000000000000000E-002   1.05000000000000       0.000000000000000E+000
  0.000000000000000E+000   1.05000000000000       5.000000000000000E-002
  5.000000000000000E-002   1.00000000000000       5.000000000000000E-002
  0.000000000000000E+000   1.10000000000000       0.000000000000000E+000
  0.000000000000000E+000   1.00000000000000       0.100000000000000     
  0.100000000000000        1.00000000000000       0.000000000000000E+000
  0.000000000000000E+000   1.05000000000000       0.000000000000000E+000
  0.000000000000000E+000   1.00000000000000       5.000000000000000E-002
  5.000000000000000E-002   1.00000000000000       0.000000000000000E+000
  0.100000000000000       0.950000000000000       0.100000000000000     
  5.000000000000000E-002  0.950000000000000       0.100000000000000     
  0.100000000000000       0.950000000000000       5.000000000000000E-002
  5.000000000000000E-002  0.950000000000000       5.000000000000000E-002
  0.000000000000000E+000   1.00000000000000       0.000000000000000E+000
  0.000000000000000E+000  0.950000000000000       0.100000000000000     
  0.100000000000000       0.950000000000000       0.000000000000000E+000
  5.000000000000000E-002  0.950000000000000       0.000000000000000E+000
  0.000000000000000E+000  0.950000000000000       5.000000000000000E-002
  0.100000000000000       0.900000000000000       0.100000000000000     
  5.000000000000000E-002  0.900000000000000       0.100000000000000     
  0.100000000000000       0.900000000000000       5.000000000000000E-002
  0.000000000000000E+000  0.950000000000000       0.000000000000000E+000
  5.000000000000000E-002  0.900000000000000       5.000000000000000E-002
  0.100000000000000       0.900000000000000       0.000000000000000E+000
  0.000000000000000E+000  0.900000000000000       0.100000000000000     
  5.000000000000000E-002  0.900000000000000       0.000000000000000E+000
  0.000000000000000E+000  0.900000000000000       5.000000000000000E-002
  0.000000000000000E+000  0.900000000000000       0.000000000000000E+000
  0.100000000000000       0.850000000000000       0.100000000000000     
  0.100000000000000       0.850000000000000       5.000000000000000E-002
  5.000000000000000E-002  0.850000000000000       0.100000000000000     
  5.000000000000000E-002  0.850000000000000       5.000000000000000E-002
  0.100000000000000       0.850000000000000       0.000000000000000E+000
  0.000000000000000E+000  0.850000000000000       0.100000000000000     
  0.000000000000000E+000  0.850000000000000       5.000000000000000E-002
  5.000000000000000E-002  0.850000000000000       0.000000000000000E+000
  0.000000000000000E+000  0.850000000000000       0.000000000000000E+000
  0.100000000000000       0.800000000000000       0.100000000000000     
  5.000000000000000E-002  0.800000000000000       0.100000000000000     
  0.100000000000000       0.800000000000000       5.000000000000000E-002
  5.000000000000000E-002  0.800000000000000       5.000000000000000E-002
  0.100000000000000       0.800000000000000       0.000000000000000E+000
  0.000000000000000E+000  0.800000000000000       0.100000000000000     
  5.000000000000000E-002  0.800000000000000       0.000000000000000E+000
  0.000000000000000E+000  0.800000000000000       5.000000000000000E-002
  0.000000000000000E+000  0.800000000000000       0.000000000000000E+000
  0.100000000000000       0.750000000000000       0.100000000000000     
  0.100000000000000       0.750000000000000       5.000000000000000E-002
  5.000000000000000E-002  0.750000000000000       0.100000000000000     
  5.000000000000000E-002  0.750000000000000       5.000000000000000E-002
  0.100000000000000       0.750000000000000       0.000000000000000E+000
  0.000000000000000E+000  0.750000000000000       0.100000000000000     
  5.000000000000000E-002  0.750000000000000       0.000000000000000E+000
  0.000000000000000E+000  0.750000000000000       5.000000000000000E-002
  0.000000000000000E+000  0.750000000000000       0.000000000000000E+000
  0.100000000000000       0.700000000000000       0.100000000000000     
  0.100000000000000       0.700000000000000       5.000000000000000E-002
  5.000000000000000E-002  0.700000000000000       0.100000000000000     
  5.000000000000000E-002  0.700000000000000       5.000000000000000E-002
  0.000000000000000E+000  0.700000000000000       0.100000000000000     
  0.100000000000000       0.700000000000000       0.000000000000000E+000
  0.000000000000000E+000  0.700000000000000       5.000000000000000E-002
  5.000000000000000E-002  0.700000000000000       0.000000000000000E+000
  0.000000000000000E+000  0.700000000000000       0.000000000000000E+000
  0.100000000000000       0.650000000000000       0.100000000000000     
  5.000000000000000E-002  0.650000000000000       0.100000000000000     
  0.100000000000000       0.650000000000000       5.000000000000000E-002
  5.000000000000000E-002  0.650000000000000       5.000000000000000E-002
  0.000000000000000E+000  0.650000000000000       0.100000000000000     
  0.100000000000000       0.650000000000000       0.000000000000000E+000
  5.000000000000000E-002  0.650000000000000       0.000000000000000E+000
  0.000000000000000E+000  0.650000000000000       5.000000000000000E-002
  0.000000000000000E+000  0.650000000000000       0.000000000000000E+000
  0.100000000000000       0.600000000000000       0.100000000000000     
  5.000000000000000E-002  0.600000000000000       0.100000000000000     
  0.100000000000000       0.600000000000000       5.000000000000000E-002
  5.000000000000000E-002  0.600000000000000       5.000000000000000E-002
  0.000000000000000E+000  0.600000000000000       0.100000000000000     
  0.100000000000000       0.600000000000000       0.000000000000000E+000
  5.000000000000000E-002  0.600000000000000       0.000000000000000E+000
  0.000000000000000E+000  0.600000000000000       5.000000000000000E-002
  0.000000000000000E+000  0.600000000000000       0.000000000000000E+000
  0.100000000000000       0.550000000000000       0.100000000000000     
  0.100000000000000       0.550000000000000       5.000000000000000E-002
  5.000000000000000E-002  0.550000000000000       0.100000000000000     
  5.000000000000000E-002  0.550000000000000       5.000000000000000E-002
  0.000000000000000E+000  0.550000000000000       0.100000000000000     
  0.100000000000000       0.550000000000000       0.000000000000000E+000
  5.000000000000000E-002  0.550000000000000       0.000000000000000E+000
  0.000000000000000E+000  0.550000000000000       5.000000000000000E-002
  0.000000000000000E+000  0.550000000000000       0.000000000000000E+000
  0.100000000000000       0.500000000000000       0.100000000000000     
  0.100000000000000       0.500000000000000       5.000000000000000E-002
  5.000000000000000E-002  0.500000000000000       0.100000000000000     
  5.000000000000000E-002  0.500000000000000       5.000000000000000E-002
  0.100000000000000       0.500000000000000       0.000000000000000E+000
  0.000000000000000E+000  0.500000000000000       0.100000000000000     
  0.000000000000000E+000  0.500000000000000       5.000000000000000E-002
  5.000000000000000E-002  0.500000000000000       0.000000000000000E+000
  0.000000000000000E+000  0.500000000000000       0.000000000000000E+000
  0.100000000000000       0.450000000000000       0.100000000000000     
  0.100000000000000       0.450000000000000       5.000000000000000E-002
  5.000000000000000E-002  0.450000000000000       0.100000000000000     
  5.000000000000000E-002  0.450000000000000       5.000000000000000E-002
  0.000000000000000E+000  0.450000000000000       0.100000000000000     
  0.100000000000000       0.450000000000000       0.000000000000000E+000
  0.000000000000000E+000  0.450000000000000       5.000000000000000E-002
  5.000000000000000E-002  0.450000000000000       0.000000000000000E+000
  0.000000000000000E+000  0.450000000000000       0.000000000000000E+000
  0.100000000000000       0.400000000000000       0.100000000000000     
  0.100000000000000       0.400000000000000       5.000000000000000E-002
  5.000000000000000E-002  0.400000000000000       0.100000000000000     
  5.000000000000000E-002  0.400000000000000       5.000000000000000E-002
  0.100000000000000       0.400000000000000       0.000000000000000E+000
  0.000000000000000E+000  0.400000000000000       0.100000000000000     
  0.000000000000000E+000  0.400000000000000       5.000000000000000E-002
  5.000000000000000E-002  0.400000000000000       0.000000000000000E+000
  0.000000000000000E+000  0.400000000000000       0.000000000000000E+000
  0.100000000000000       0.350000000000000       0.100000000000000     
  5.000000000000000E-002  0.350000000000000       0.100000000000000     
  0.100000000000000       0.350000000000000       5.000000000000000E-002
  5.000000000000000E-002  0.350000000000000       5.000000000000000E-002
  0.100000000000000       0.350000000000000       0.000000000000000E+000
  0.000000000000000E+000  0.350000000000000       0.100000000000000     
  5.000000000000000E-002  0.350000000000000       0.000000000000000E+000
  0.000000000000000E+000  0.350000000000000       5.000000000000000E-002
  0.000000000000000E+000  0.350000000000000       0.000000000000000E+000
  0.100000000000000       0.300000000000000       0.100000000000000     
  5.000000000000000E-002  0.300000000000000       0.100000000000000     
  0.100000000000000       0.300000000000000       5.000000000000000E-002
  5.000000000000000E-002  0.300000000000000       5.000000000000000E-002
  0.100000000000000       0.300000000000000       0.000000000000000E+000
  0.000000000000000E+000  0.300000000000000       0.100000000000000     
  5.000000000000000E-002  0.300000000000000       0.000000000000000E+000
  0.000000000000000E+000  0.300000000000000       5.000000000000000E-002
  0.000000000000000E+000  0.300000000000000       0.000000000000000E+000
  0.100000000000000       0.250000000000000       0.100000000000000     
  0.100000000000000       0.250000000000000       5.000000000000000E-002
  5.000000000000000E-002  0.250000000000000       0.100000000000000     
  5.000000000000000E-002  0.250000000000000       5.000000000000000E-002
  0.000000000000000E+000  0.250000000000000       0.100000000000000     
  0.100000000000000       0.250000000000000       0.000000000000000E+000
  0.000000000000000E+000  0.250000000000000       5.000000000000000E-002
  5.000000000000000E-002  0.250000000000000       0.000000000000000E+000
  0.000000000000000E+000  0.250000000000000       0.000000000000000E+000
  0.100000000000000       0.200000000000000       0.100000000000000     
  0.100000000000000       0.200000000000000       5.000000000000000E-002
  5.000000000000000E-002  0.200000000000000       0.100000000000000     
  5.000000000000000E-002  0.200000000000000       5.000000000000000E-002
  0.100000000000000       0.200000000000000       0.000000000000000E+000
  0.000000000000000E+000  0.200000000000000       0.100000000000000     
  5.000000000000000E-002  0.200000000000000       0.000000000000000E+000
  0.000000000000000E+000  0.200000000000000       5.000000000000000E-002
  0.000000000000000E+000  0.200000000000000       0.000000000000000E+000
  0.100000000000000       0.150000000000000       0.100000000000000     
  0.100000000000000       0.150000000000000       5.000000000000000E-002
  5.000000000000000E-002  0.150000000000000       0.100000000000000     
  5.000000000000000E-002  0.150000000000000       5.000000000000000E-002
  0.000000000000000E+000  0.150000000000000       0.100000000000000     
  0.100000000000000       0.150000000000000       0.000000000000000E+000
  0.000000000000000E+000  0.150000000000000       5.000000000000000E-002
  5.000000000000000E-002  0.150000000000000       0.000000000000000E+000
  0.000000000000000E+000  0.150000000000000       0.000000000000000E+000
  0.100000000000000       0.100000000000000       0.100000000000000     
  5.000000000000000E-002  0.100000000000000       0.100000000000000     
  0.100000000000000       0.100000000000000       5.000000000000000E-002
  5.000000000000000E-002  0.100000000000000       5.000000000000000E-002
  0.100000000000000       0.100000000000000       0.000000000000000E+000
  0.000000000000000E+000  0.100000000000000       0.100000000000000     
  5.000000000000000E-002  0.100000000000000       0.000000000000000E+000
  0.000000000000000E+000  0.100000000000000       5.000000000000000E-002
  0.000000000000000E+000  0.100000000000000       0.000000000000000E+000
  0.100000000000000       5.000000000000000E-002  0.100000000000000     
  0.100000000000000       5.000000000000000E-002  5.000000000000000E-002
  5.000000000000000E-002  5.000000000000000E-002  0.100000000000000     
  5.000000000000000E-002  5.000000000000000E-002  5.000000000000000E-002
  0.000000000000000E+000  5.000000000000000E-002  0.100000000000000     
  0.100000000000000       5.000000000000000E-002  0.000000000000000E+000
  5.000000000000000E-002  5.000000000000000E-002  0.000000000000000E+000
  0.000000000000000E+000  5.000000000000000E-002  5.000000000000000E-002
  0.000000000000000E+000  5.000000000000000E-002  0.000000000000000E+000
  0.100000000000000       0.000000000000000E+000  0.100000000000000     
  0.100000000000000       0.000000000000000E+000  5.000000000000000E-002
  5.000000000000000E-002  0.000000000000000E+000  0.100000000000000     
  5.000000000000000E-002  0.000000000000000E+000  5.000000000000000E-002
  0.000000000000000E+000  0.000000000000000E+000  0.100000000000000     
  0.100000000000000       0.000000000000000E+000  0.000000000000000E+000
  0.000000000000000E+000  0.000000000000000E+000  5.000000000000000E-002
  5.000000000000000E-002  0.000000000000000E+000  0.000000000000000E+000
  0.000000000000000E+000  0.000000000000000E+000  0.000000000000000E+000
CELLS       66     330
           4         203         198         180         206
           4         206         203         184         180
           4         202         185         180         206
           4         206         188         185         180
           4         206         202         198         180
           4         188         184         180         206
           4         184         180         162         188
           4         188         184         166         162
           4         185         167         162         188
           4         188         170         167         162
           4         188         185         180         162
           4         170         166         162         188
           4         166         162         144         170
           4         170         166         148         144
           4         167         149         144         170
           4         170         152         149         144
           4         170         167         162         144
           4         152         148         144         170
           4         148         144         126         152
           4         152         148         130         126
           4         149         131         126         152
           4         152         134         131         126
           4         152         149         144         126
           4         134         130         126         152
           4         130         126         108         134
           4         134         130         112         108
           4         131         113         108         134
           4         134         116         113         108
           4         134         131         126         108
           4         116         112         108         134
           4         112         108          90         116
           4         116         112          95          90
           4         113          94          90         116
           4         116          98          94          90
           4         116         113         108          90
           4          98          95          90         116
           4          95          90          72          98
           4          98          95          77          72
           4          94          76          72          98
           4          98          80          76          72
           4          98          94          90          72
           4          80          77          72          98
           4          77          72          54          80
           4          80          77          58          54
           4          76          59          54          80
           4          80          62          59          54
           4          80          76          72          54
           4          62          58          54          80
           4          58          54          35          62
           4          62          58          40          35
           4          59          41          35          62
           4          62          44          41          35
           4          62          59          54          35
           4          44          40          35          62
           4          44          41          35          30
           4          30          44          40          35
           4          21          10          35          30
           4          30          22          10          35
           4          30          21          41          35
           4          22          40          35          30
           4          30          22           9           0
           4          30          20           8           0
           4          22          30          10           0
           4          20           9           0          30
           4          21           0          10          30
           4           8          21          30           0
CELL_TYPES       66
          10
          10
          10
          10
          10
          10
          10
          10
          10
          10
          10
          10
          10
          10
          10
          10
          10
          10
          10
          10
          10
          10
          10
          10
          10
          10
          10
          10
          10
          10
          10
          10
          10
          10
          10
          10
          10
          10
          10
          10
          10
          10
          10
          10
          10
          10
          10
          10
          10
          10
          10
          10
          10
          10
          10
          10
          10
          10
          10
          10
          10
          10
          10
          10
          10
          10
CELL_DATA       66
SCALARS active_elements float 1
LOOKUP_TABLE default
   1.00000000000000     
   1.00000000000000     
   1.00000000000000     
   1.00000000000000     
   1.00000000000000     
   1.00000000000000     
   1.00000000000000     
   1.00000000000000     
   1.00000000000000     
   1.00000000000000     
   1.00000000000000     
   1.00000000000000     
   1.00000000000000     
   1.00000000000000     
   1.00000000000000     
   1.00000000000000     
   1.00000000000000     
   1.00000000000000     
   1.00000000000000     
   1.00000000000000     
   1.00000000000000     
   1.00000000000000     
   1.00000000000000     
   1.00000000000000     
   1.00000000000000     
   1.00000000000000     
   1.00000000000000     
   1.00000000000000     
   1.00000000000000     
   1.00000000000000     
   1.00000000000000     
   1.00000000000000     
   1.00000000000000     
   1.00000000000000     
   1.00000000000000     
   1.00000000000000     
   1.00000000000000     
   1.00000000000000     
   1.00000000000000     
   1.00000000000000     
   1.00000000000000     
   1.00000000000000     
   1.00000000000000     
   1.00000000000000     
   1.00000000000000     
   1.00000000000000     
   1.00000000000000     
   1.00000000000000     
   1.00000000000000     
   1.00000000000000     
   1.00000000000000     
   1.00000000000000     
   1.00000000000000     
   1.00000000000000     
   1.00000000000000     
   1.00000000000000     
   1.00000000000000     
   1.00000000000000     
   1.00000000000000     
   1.00000000000000     
  0.000000000000000E+000
  0.000000000000000E+000
  0.000000000000000E+000
  0.000000000000000E+000
  0.000000000000000E+000
  0.000000000000000E+000
SCALARS border_elements float 1
LOOKUP_TABLE default
  0.000000000000000E+000
  0.000000000000000E+000
  0.000000000000000E+000
  0.000000000000000E+000
  0.000000000000000E+000
  0.000000000000000E+000
  0.000000000000000E+000
  0.000000000000000E+000
  0.000000000000000E+000
  0.000000000000000E+000
  0.000000000000000E+000
  0.000000000000000E+000
  0.000000000000000E+000
  0.000000000000000E+000
  0.000000000000000E+000
  0.000000000000000E+000
  0.000000000000000E+000
  0.000000000000000E+000
  0.000000000000000E+000
  0.000000000000000E+000
  0.000000000000000E+000
  0.000000000000000E+000
  0.000000000000000E+000
  0.000000000000000E+000
  0.000000000000000E+000
  0.000000000000000E+000
  0.000000000000000E+000
  0.000000000000000E+000
  0.000000000000000E+000
  0.000000000000000E+000
  0.000000000000000E+000
  0.000000000000000E+000
  0.000000000000000E+000
  0.000000000000000E+000
  0.000000000000000E+000
  0.000000000000000E+000
  0.000000000000000E+000
  0.000000000000000E+000
  0.000000000000000E+000
  0.000000000000000E+000
  0.000000000000000E+000
  0.000000000000000E+000
  0.000000000000000E+000
  0.000000000000000E+000
  0.000000000000000E+000
  0.000000000000000E+000
  0.000000000000000E+000
  0.000000000000000E+000
  0.000000000000000E+000
  0.000000000000000E+000
  0.000000000000000E+000
  0.000000000000000E+000
  0.000000000000000E+000
  0.000000000000000E+000
  0.000000000000000E+000
  0.000000000000000E+000
  0.000000000000000E+000
  0.000000000000000E+000
  0.000000000000000E+000
  0.000000000000000E+000
  0.000000000000000E+000
  0.000000000000000E+000
  0.000000000000000E+000
  0.000000000000000E+000
  0.000000000000000E+000
  0.000000000000000E+000
