# vtk DataFile Version 3.0
test-1007
ASCII
DATASET UNSTRUCTURED_GRID
POINTS       24 float
  0.000000000000000E+000   1.10000000000000       0.000000000000000E+000
  0.100000000000000        1.10000000000000       0.000000000000000E+000
  0.000000000000000E+000   1.00000000000000       0.000000000000000E+000
  0.100000000000000        1.00000000000000       0.000000000000000E+000
  0.000000000000000E+000  0.900000000000000       0.000000000000000E+000
  0.100000000000000       0.900000000000000       0.000000000000000E+000
  0.000000000000000E+000  0.800000000000000       0.000000000000000E+000
  0.100000000000000       0.800000000000000       0.000000000000000E+000
  0.000000000000000E+000  0.700000000000000       0.000000000000000E+000
  0.100000000000000       0.700000000000000       0.000000000000000E+000
  0.000000000000000E+000  0.600000000000000       0.000000000000000E+000
  0.100000000000000       0.600000000000000       0.000000000000000E+000
  0.000000000000000E+000  0.500000000000000       0.000000000000000E+000
  0.100000000000000       0.500000000000000       0.000000000000000E+000
  0.000000000000000E+000  0.400000000000000       0.000000000000000E+000
  0.100000000000000       0.400000000000000       0.000000000000000E+000
  0.000000000000000E+000  0.300000000000000       0.000000000000000E+000
  0.100000000000000       0.300000000000000       0.000000000000000E+000
  0.000000000000000E+000  0.200000000000000       0.000000000000000E+000
  0.100000000000000       0.200000000000000       0.000000000000000E+000
  0.000000000000000E+000  0.100000000000000       0.000000000000000E+000
  0.100000000000000       0.100000000000000       0.000000000000000E+000
  0.000000000000000E+000  0.000000000000000E+000  0.000000000000000E+000
  0.100000000000000       0.000000000000000E+000  0.000000000000000E+000
CELLS       22      88
           3           3           1           2
           3           1           0           2
           3          22          23          20
           3           9           7           6
           3          10          12          13
           3           6           7           4
           3          13          12          15
           3          17          15          14
           3          14          15          12
           3           2           4           5
           3           5           4           7
           3          18          20          19
           3          18          19          16
           3          21          19          20
           3          21          20          23
           3           5           3           2
           3          14          16          17
           3          17          16          19
           3          13          11          10
           3          10          11           8
           3           6           8           9
           3           9           8          11
CELL_TYPES       22
           5
           5
           5
           5
           5
           5
           5
           5
           5
           5
           5
           5
           5
           5
           5
           5
           5
           5
           5
           5
           5
           5
CELL_DATA       22
SCALARS active_elements float 1
LOOKUP_TABLE default
  0.000000000000000E+000
  0.000000000000000E+000
   1.00000000000000     
   1.00000000000000     
   1.00000000000000     
   1.00000000000000     
   1.00000000000000     
   1.00000000000000     
   1.00000000000000     
   1.00000000000000     
   1.00000000000000     
   1.00000000000000     
   1.00000000000000     
   1.00000000000000     
   1.00000000000000     
   1.00000000000000     
   1.00000000000000     
   1.00000000000000     
   1.00000000000000     
   1.00000000000000     
   1.00000000000000     
   1.00000000000000     
SCALARS border_elements float 1
LOOKUP_TABLE default
  0.000000000000000E+000
  0.000000000000000E+000
  0.000000000000000E+000
  0.000000000000000E+000
  0.000000000000000E+000
  0.000000000000000E+000
  0.000000000000000E+000
  0.000000000000000E+000
  0.000000000000000E+000
  0.000000000000000E+000
  0.000000000000000E+000
  0.000000000000000E+000
  0.000000000000000E+000
  0.000000000000000E+000
  0.000000000000000E+000
  0.000000000000000E+000
  0.000000000000000E+000
  0.000000000000000E+000
  0.000000000000000E+000
  0.000000000000000E+000
  0.000000000000000E+000
  0.000000000000000E+000
